<?xml version="1.0" encoding="UTF-8"?>

<!-- generated on 2025-11-12 09:45:21 by Eclipse SUMO GUI Version 1.24.0
<sumoConfiguration xmlns:xsi="http://www.w3.org/2001/XMLSchema-instance" xsi:noNamespaceSchemaLocation="http://sumo.dlr.de/xsd/sumoConfiguration.xsd">

    <input>
        <net-file value="./osm.net.xml.gz"/>
        <route-files value="./osm.passenger.trips.xml"/>
        <additional-files value="./osm.poly.xml.gz,./output.add.xml"/>
    </input>

    <output>
        <summary-output value="./summary.xml"/>
        <tripinfo-output value="./tripinfos.xml"/>
        <statistic-output value="./stats.xml"/>
    </output>

    <time>
        <step-length value="1"/>
    </time>

    <processing>
        <ignore-route-errors value="true"/>
        <tls.actuated.jam-threshold value="30"/>
    </processing>

    <routing>
        <device.rerouting.adaptation-steps value="18"/>
        <device.rerouting.adaptation-interval value="10"/>
    </routing>

    <report>
        <verbose value="true"/>
        <duration-log.statistics value="true"/>
        <no-step-log value="true"/>
    </report>

    <traci_server>
        <remote-port value="51365"/>
    </traci_server>

    <random_number>
        <seed value="42"/>
    </random_number>

    <gui_only>
        <gui-settings-file value="./osm.view.xml"/>
    </gui_only>

</sumoConfiguration>
-->

<meandata xmlns:xsi="http://www.w3.org/2001/XMLSchema-instance" xsi:noNamespaceSchemaLocation="http://sumo.dlr.de/xsd/meandata_file.xsd">
    <interval begin="0.00" end="60.00" id="wizard_example_lanes">
        <edge id="-104372161">
            <lane id="-104372161_0" sampledSeconds="13.10" traveltime="3.33" overlapTraveltime="5.41" density="10.13" laneDensity="10.13" occupancy="3.99" waitingTime="0.00" timeLoss="6.92" speed="4.92" speedRelative="0.22" departed="3" arrived="0" entered="0" left="3" laneChangedFrom="0" laneChangedTo="0"/>
        </edge>
        <edge id="-1211583059">
            <lane id="-1211583059_0" sampledSeconds="0.00" departed="0" arrived="0" entered="0" left="0" laneChangedFrom="0" laneChangedTo="0"/>
        </edge>
        <edge id="-1211583061#0">
            <lane id="-1211583061#0_0" sampledSeconds="0.00" departed="0" arrived="0" entered="0" left="0" laneChangedFrom="0" laneChangedTo="0"/>
        </edge>
        <edge id="-1211583061#1">
            <lane id="-1211583061#1_0" sampledSeconds="0.00" departed="0" arrived="0" entered="0" left="0" laneChangedFrom="0" laneChangedTo="0"/>
        </edge>
        <edge id="-224414722">
            <lane id="-224414722_0" sampledSeconds="0.00" departed="0" arrived="0" entered="0" left="0" laneChangedFrom="0" laneChangedTo="0"/>
        </edge>
        <edge id="-224414723#0">
            <lane id="-224414723#0_0" sampledSeconds="0.00" departed="0" arrived="0" entered="0" left="0" laneChangedFrom="0" laneChangedTo="0"/>
        </edge>
        <edge id="-224414723#1">
            <lane id="-224414723#1_0" sampledSeconds="0.00" departed="0" arrived="0" entered="0" left="0" laneChangedFrom="0" laneChangedTo="0"/>
        </edge>
        <edge id="-224414724">
            <lane id="-224414724_0" sampledSeconds="0.00" departed="0" arrived="0" entered="0" left="0" laneChangedFrom="0" laneChangedTo="0"/>
        </edge>
        <edge id="-273059095">
            <lane id="-273059095_0" sampledSeconds="0.00" departed="0" arrived="0" entered="0" left="0" laneChangedFrom="0" laneChangedTo="0"/>
        </edge>
        <edge id="-277218265">
            <lane id="-277218265_0" sampledSeconds="0.00" departed="0" arrived="0" entered="0" left="0" laneChangedFrom="0" laneChangedTo="0"/>
        </edge>
        <edge id="-277218266">
            <lane id="-277218266_0" sampledSeconds="0.00" departed="0" arrived="0" entered="0" left="0" laneChangedFrom="0" laneChangedTo="0"/>
        </edge>
        <edge id="-34156124#0">
            <lane id="-34156124#0_0" sampledSeconds="6.48" traveltime="6.32" overlapTraveltime="6.73" density="1.36" laneDensity="1.36" occupancy="0.66" waitingTime="0.00" timeLoss="0.31" speed="12.55" speedRelative="0.90" departed="0" arrived="1" entered="1" left="0" laneChangedFrom="0" laneChangedTo="0"/>
        </edge>
        <edge id="-34156124#1">
            <lane id="-34156124#1_0" sampledSeconds="5.08" traveltime="4.67" overlapTraveltime="5.08" density="1.47" laneDensity="1.47" occupancy="0.68" waitingTime="0.00" timeLoss="0.34" speed="12.29" speedRelative="0.89" departed="0" arrived="0" entered="1" left="1" laneChangedFrom="0" laneChangedTo="0"/>
        </edge>
        <edge id="-59139181">
            <lane id="-59139181_0" sampledSeconds="0.00" departed="0" arrived="0" entered="0" left="0" laneChangedFrom="0" laneChangedTo="0"/>
        </edge>
        <edge id="-78863963#2">
            <lane id="-78863963#2_0" sampledSeconds="0.00" departed="0" arrived="0" entered="0" left="0" laneChangedFrom="0" laneChangedTo="0"/>
        </edge>
        <edge id="104372160#1">
            <lane id="104372160#1_0" sampledSeconds="14.52" traveltime="14.35" overlapTraveltime="14.52" density="0.78" laneDensity="0.78" occupancy="0.38" waitingTime="0.00" timeLoss="3.90" speed="21.78" speedRelative="0.78" departed="0" arrived="1" entered="1" left="0" laneChangedFrom="0" laneChangedTo="0"/>
            <lane id="104372160#1_1" sampledSeconds="0.00" departed="0" arrived="0" entered="0" left="0" laneChangedFrom="0" laneChangedTo="0"/>
            <lane id="104372160#1_2" sampledSeconds="0.00" departed="0" arrived="0" entered="0" left="0" laneChangedFrom="0" laneChangedTo="0"/>
        </edge>
        <edge id="104372161">
            <lane id="104372161_0" sampledSeconds="13.13" traveltime="3.64" overlapTraveltime="4.38" density="10.15" laneDensity="10.15" occupancy="3.81" waitingTime="0.00" timeLoss="6.90" speed="6.07" speedRelative="0.27" departed="0" arrived="0" entered="3" left="3" laneChangedFrom="0" laneChangedTo="0"/>
        </edge>
        <edge id="1211583059">
            <lane id="1211583059_0" sampledSeconds="0.00" departed="0" arrived="0" entered="0" left="0" laneChangedFrom="0" laneChangedTo="0"/>
        </edge>
        <edge id="1211583061#0">
            <lane id="1211583061#0_0" sampledSeconds="0.00" departed="0" arrived="0" entered="0" left="0" laneChangedFrom="0" laneChangedTo="0"/>
        </edge>
        <edge id="1211583061#1">
            <lane id="1211583061#1_0" sampledSeconds="0.00" departed="0" arrived="0" entered="0" left="0" laneChangedFrom="0" laneChangedTo="0"/>
        </edge>
        <edge id="133297308">
            <lane id="133297308_0" sampledSeconds="0.00" departed="0" arrived="0" entered="0" left="0" laneChangedFrom="0" laneChangedTo="0"/>
        </edge>
        <edge id="174701097#0">
            <lane id="174701097#0_0" sampledSeconds="8.25" traveltime="8.02" overlapTraveltime="8.25" density="1.30" laneDensity="1.30" occupancy="0.61" waitingTime="0.00" timeLoss="4.82" speed="13.44" speedRelative="0.48" departed="0" arrived="0" entered="1" left="1" laneChangedFrom="0" laneChangedTo="0"/>
            <lane id="174701097#0_1" sampledSeconds="8.92" traveltime="8.05" overlapTraveltime="8.29" density="1.40" laneDensity="1.40" occupancy="0.64" waitingTime="0.00" timeLoss="4.06" speed="13.39" speedRelative="0.48" departed="0" arrived="0" entered="2" left="1" laneChangedFrom="0" laneChangedTo="0"/>
            <lane id="174701097#0_2" sampledSeconds="0.00" departed="0" arrived="0" entered="0" left="0" laneChangedFrom="0" laneChangedTo="0"/>
        </edge>
        <edge id="174701097#1">
            <lane id="174701097#1_0" sampledSeconds="1.76" traveltime="1.56" overlapTraveltime="1.76" density="0.83" laneDensity="0.83" occupancy="0.36" waitingTime="0.00" timeLoss="0.51" speed="22.98" speedRelative="0.83" departed="0" arrived="0" entered="1" left="1" laneChangedFrom="0" laneChangedTo="0"/>
            <lane id="174701097#1_1" sampledSeconds="1.74" traveltime="1.53" overlapTraveltime="1.74" density="0.82" laneDensity="0.82" occupancy="0.36" waitingTime="0.00" timeLoss="0.09" speed="23.27" speedRelative="0.84" departed="0" arrived="0" entered="1" left="1" laneChangedFrom="0" laneChangedTo="0"/>
            <lane id="174701097#1_2" sampledSeconds="0.00" departed="0" arrived="0" entered="0" left="0" laneChangedFrom="0" laneChangedTo="0"/>
        </edge>
        <edge id="174701097#2">
            <lane id="174701097#2_0" sampledSeconds="16.45" traveltime="16.57" overlapTraveltime="17.14" density="1.90" laneDensity="1.90" occupancy="0.94" waitingTime="7.00" timeLoss="12.02" speed="8.71" speedRelative="0.31" departed="0" arrived="0" entered="1" left="0" laneChangedFrom="0" laneChangedTo="0"/>
            <lane id="174701097#2_1" sampledSeconds="2.52" traveltime="6.05" overlapTraveltime="6.26" density="0.29" laneDensity="0.29" occupancy="0.14" waitingTime="0.00" timeLoss="0.07" speed="23.84" speedRelative="0.86" departed="0" arrived="0" entered="1" left="0" laneChangedFrom="0" laneChangedTo="0"/>
            <lane id="174701097#2_2" sampledSeconds="0.00" departed="0" arrived="0" entered="0" left="0" laneChangedFrom="0" laneChangedTo="0"/>
        </edge>
        <edge id="174701109#0">
            <lane id="174701109#0_0" sampledSeconds="0.00" departed="0" arrived="0" entered="0" left="0" laneChangedFrom="0" laneChangedTo="0"/>
        </edge>
        <edge id="174701109#1">
            <lane id="174701109#1_0" sampledSeconds="0.00" departed="0" arrived="0" entered="0" left="0" laneChangedFrom="0" laneChangedTo="0"/>
        </edge>
        <edge id="174701109#2">
            <lane id="174701109#2_0" sampledSeconds="0.00" departed="0" arrived="0" entered="0" left="0" laneChangedFrom="0" laneChangedTo="0"/>
        </edge>
        <edge id="174701109#3">
            <lane id="174701109#3_0" sampledSeconds="0.00" departed="0" arrived="0" entered="0" left="0" laneChangedFrom="0" laneChangedTo="0"/>
        </edge>
        <edge id="174701110">
            <lane id="174701110_0" sampledSeconds="0.00" departed="0" arrived="0" entered="0" left="0" laneChangedFrom="0" laneChangedTo="0"/>
        </edge>
        <edge id="174701111">
            <lane id="174701111_0" sampledSeconds="0.00" departed="0" arrived="0" entered="0" left="0" laneChangedFrom="0" laneChangedTo="0"/>
        </edge>
        <edge id="224414722">
            <lane id="224414722_0" sampledSeconds="0.00" departed="0" arrived="0" entered="0" left="0" laneChangedFrom="0" laneChangedTo="0"/>
        </edge>
        <edge id="224414723#0">
            <lane id="224414723#0_0" sampledSeconds="0.00" departed="0" arrived="0" entered="0" left="0" laneChangedFrom="0" laneChangedTo="0"/>
        </edge>
        <edge id="224414723#1">
            <lane id="224414723#1_0" sampledSeconds="0.00" departed="0" arrived="0" entered="0" left="0" laneChangedFrom="0" laneChangedTo="0"/>
        </edge>
        <edge id="224414724">
            <lane id="224414724_0" sampledSeconds="0.00" departed="0" arrived="0" entered="0" left="0" laneChangedFrom="0" laneChangedTo="0"/>
        </edge>
        <edge id="273059095">
            <lane id="273059095_0" sampledSeconds="0.00" departed="0" arrived="0" entered="0" left="0" laneChangedFrom="0" laneChangedTo="0"/>
        </edge>
        <edge id="277218265">
            <lane id="277218265_0" sampledSeconds="0.00" departed="0" arrived="0" entered="0" left="0" laneChangedFrom="0" laneChangedTo="0"/>
        </edge>
        <edge id="277218266">
            <lane id="277218266_0" sampledSeconds="0.00" departed="0" arrived="0" entered="0" left="0" laneChangedFrom="0" laneChangedTo="0"/>
        </edge>
        <edge id="34156124#0">
            <lane id="34156124#0_0" sampledSeconds="0.00" departed="0" arrived="0" entered="0" left="0" laneChangedFrom="0" laneChangedTo="0"/>
        </edge>
        <edge id="34156124#1">
            <lane id="34156124#1_0" sampledSeconds="0.00" departed="0" arrived="0" entered="0" left="0" laneChangedFrom="0" laneChangedTo="0"/>
        </edge>
        <edge id="59139181">
            <lane id="59139181_0" sampledSeconds="0.00" departed="0" arrived="0" entered="0" left="0" laneChangedFrom="0" laneChangedTo="0"/>
        </edge>
        <edge id="61646749#0">
            <lane id="61646749#0_0" sampledSeconds="0.00" departed="0" arrived="0" entered="0" left="0" laneChangedFrom="0" laneChangedTo="0"/>
            <lane id="61646749#0_1" sampledSeconds="0.00" departed="0" arrived="0" entered="0" left="0" laneChangedFrom="0" laneChangedTo="0"/>
            <lane id="61646749#0_2" sampledSeconds="0.00" departed="0" arrived="0" entered="0" left="0" laneChangedFrom="0" laneChangedTo="0"/>
        </edge>
        <edge id="61646750">
            <lane id="61646750_0" sampledSeconds="0.00" departed="0" arrived="0" entered="0" left="0" laneChangedFrom="0" laneChangedTo="0"/>
            <lane id="61646750_1" sampledSeconds="0.00" departed="0" arrived="0" entered="0" left="0" laneChangedFrom="0" laneChangedTo="0"/>
            <lane id="61646750_2" sampledSeconds="0.00" departed="0" arrived="0" entered="0" left="0" laneChangedFrom="0" laneChangedTo="0"/>
        </edge>
        <edge id="78863963#0">
            <lane id="78863963#0_0" sampledSeconds="32.90" traveltime="15.89" overlapTraveltime="16.94" density="3.19" laneDensity="3.19" occupancy="1.55" waitingTime="2.00" timeLoss="8.00" speed="10.45" speedRelative="0.75" departed="2" arrived="0" entered="0" left="2" laneChangedFrom="0" laneChangedTo="0"/>
        </edge>
    </interval>
    <interval begin="60.00" end="120.00" id="wizard_example_lanes">
        <edge id="-104372161">
            <lane id="-104372161_0" sampledSeconds="0.00" departed="0" arrived="0" entered="0" left="0" laneChangedFrom="0" laneChangedTo="0"/>
        </edge>
        <edge id="-1211583059">
            <lane id="-1211583059_0" sampledSeconds="0.00" departed="0" arrived="0" entered="0" left="0" laneChangedFrom="0" laneChangedTo="0"/>
        </edge>
        <edge id="-1211583061#0">
            <lane id="-1211583061#0_0" sampledSeconds="0.00" departed="0" arrived="0" entered="0" left="0" laneChangedFrom="0" laneChangedTo="0"/>
        </edge>
        <edge id="-1211583061#1">
            <lane id="-1211583061#1_0" sampledSeconds="0.00" departed="0" arrived="0" entered="0" left="0" laneChangedFrom="0" laneChangedTo="0"/>
        </edge>
        <edge id="-224414722">
            <lane id="-224414722_0" sampledSeconds="0.00" departed="0" arrived="0" entered="0" left="0" laneChangedFrom="0" laneChangedTo="0"/>
        </edge>
        <edge id="-224414723#0">
            <lane id="-224414723#0_0" sampledSeconds="0.00" departed="0" arrived="0" entered="0" left="0" laneChangedFrom="0" laneChangedTo="0"/>
        </edge>
        <edge id="-224414723#1">
            <lane id="-224414723#1_0" sampledSeconds="0.00" departed="0" arrived="0" entered="0" left="0" laneChangedFrom="0" laneChangedTo="0"/>
        </edge>
        <edge id="-224414724">
            <lane id="-224414724_0" sampledSeconds="0.00" departed="0" arrived="0" entered="0" left="0" laneChangedFrom="0" laneChangedTo="0"/>
        </edge>
        <edge id="-273059095">
            <lane id="-273059095_0" sampledSeconds="0.00" departed="0" arrived="0" entered="0" left="0" laneChangedFrom="0" laneChangedTo="0"/>
        </edge>
        <edge id="-277218265">
            <lane id="-277218265_0" sampledSeconds="0.00" departed="0" arrived="0" entered="0" left="0" laneChangedFrom="0" laneChangedTo="0"/>
        </edge>
        <edge id="-277218266">
            <lane id="-277218266_0" sampledSeconds="0.00" departed="0" arrived="0" entered="0" left="0" laneChangedFrom="0" laneChangedTo="0"/>
        </edge>
        <edge id="-34156124#0">
            <lane id="-34156124#0_0" sampledSeconds="0.00" departed="0" arrived="0" entered="0" left="0" laneChangedFrom="0" laneChangedTo="0"/>
        </edge>
        <edge id="-34156124#1">
            <lane id="-34156124#1_0" sampledSeconds="5.00" traveltime="4.77" overlapTraveltime="5.12" density="1.45" laneDensity="1.45" occupancy="0.67" waitingTime="0.00" timeLoss="1.22" speed="12.21" speedRelative="0.88" departed="0" arrived="1" entered="1" left="0" laneChangedFrom="0" laneChangedTo="0"/>
        </edge>
        <edge id="-59139181">
            <lane id="-59139181_0" sampledSeconds="0.00" departed="0" arrived="0" entered="0" left="0" laneChangedFrom="0" laneChangedTo="0"/>
        </edge>
        <edge id="-78863963#2">
            <lane id="-78863963#2_0" sampledSeconds="44.89" traveltime="14.66" overlapTraveltime="15.05" density="4.35" laneDensity="4.35" occupancy="2.12" waitingTime="0.00" timeLoss="5.24" speed="11.76" speedRelative="0.85" departed="0" arrived="3" entered="3" left="0" laneChangedFrom="0" laneChangedTo="0"/>
        </edge>
        <edge id="104372160#1">
            <lane id="104372160#1_0" sampledSeconds="34.29" traveltime="17.00" overlapTraveltime="17.28" density="1.84" laneDensity="1.84" occupancy="0.90" waitingTime="0.00" timeLoss="12.83" speed="18.30" speedRelative="0.66" departed="1" arrived="0" entered="1" left="2" laneChangedFrom="0" laneChangedTo="0"/>
            <lane id="104372160#1_1" sampledSeconds="12.93" traveltime="13.30" overlapTraveltime="13.51" density="0.69" laneDensity="0.69" occupancy="0.34" waitingTime="0.00" timeLoss="0.59" speed="23.40" speedRelative="0.84" departed="0" arrived="0" entered="1" left="0" laneChangedFrom="0" laneChangedTo="0"/>
            <lane id="104372160#1_2" sampledSeconds="0.00" departed="0" arrived="0" entered="0" left="0" laneChangedFrom="0" laneChangedTo="0"/>
        </edge>
        <edge id="104372161">
            <lane id="104372161_0" sampledSeconds="0.00" departed="0" arrived="0" entered="0" left="0" laneChangedFrom="0" laneChangedTo="0"/>
        </edge>
        <edge id="1211583059">
            <lane id="1211583059_0" sampledSeconds="0.00" departed="0" arrived="0" entered="0" left="0" laneChangedFrom="0" laneChangedTo="0"/>
        </edge>
        <edge id="1211583061#0">
            <lane id="1211583061#0_0" sampledSeconds="0.00" departed="0" arrived="0" entered="0" left="0" laneChangedFrom="0" laneChangedTo="0"/>
        </edge>
        <edge id="1211583061#1">
            <lane id="1211583061#1_0" sampledSeconds="0.00" departed="0" arrived="0" entered="0" left="0" laneChangedFrom="0" laneChangedTo="0"/>
        </edge>
        <edge id="133297308">
            <lane id="133297308_0" sampledSeconds="0.00" departed="0" arrived="0" entered="0" left="0" laneChangedFrom="0" laneChangedTo="0"/>
        </edge>
        <edge id="174701097#0">
            <lane id="174701097#0_0" sampledSeconds="0.00" departed="0" arrived="0" entered="0" left="0" laneChangedFrom="0" laneChangedTo="0"/>
            <lane id="174701097#0_1" sampledSeconds="17.10" traveltime="8.87" overlapTraveltime="9.11" density="2.69" laneDensity="2.69" occupancy="1.33" waitingTime="0.00" timeLoss="9.63" speed="12.18" speedRelative="0.44" departed="1" arrived="0" entered="0" left="2" laneChangedFrom="0" laneChangedTo="0"/>
            <lane id="174701097#0_2" sampledSeconds="0.00" departed="0" arrived="0" entered="0" left="0" laneChangedFrom="0" laneChangedTo="0"/>
        </edge>
        <edge id="174701097#1">
            <lane id="174701097#1_0" sampledSeconds="0.00" departed="0" arrived="0" entered="0" left="0" laneChangedFrom="0" laneChangedTo="0"/>
            <lane id="174701097#1_1" sampledSeconds="3.59" traveltime="1.59" overlapTraveltime="1.80" density="1.69" laneDensity="1.69" occupancy="0.74" waitingTime="0.00" timeLoss="0.68" speed="22.56" speedRelative="0.81" departed="0" arrived="0" entered="2" left="2" laneChangedFrom="0" laneChangedTo="0"/>
            <lane id="174701097#1_2" sampledSeconds="0.00" departed="0" arrived="0" entered="0" left="0" laneChangedFrom="0" laneChangedTo="0"/>
        </edge>
        <edge id="174701097#2">
            <lane id="174701097#2_0" sampledSeconds="23.78" traveltime="3234.51" overlapTraveltime="591.41" density="2.75" laneDensity="2.75" occupancy="1.34" waitingTime="22.00" timeLoss="23.11" speed="0.25" speedRelative="0.01" departed="0" arrived="0" entered="0" left="1" laneChangedFrom="0" laneChangedTo="0"/>
            <lane id="174701097#2_1" sampledSeconds="55.93" traveltime="20.57" overlapTraveltime="21.54" density="6.46" laneDensity="6.46" occupancy="3.15" waitingTime="22.00" timeLoss="40.26" speed="6.93" speedRelative="0.25" departed="0" arrived="0" entered="2" left="3" laneChangedFrom="0" laneChangedTo="0"/>
            <lane id="174701097#2_2" sampledSeconds="0.00" departed="0" arrived="0" entered="0" left="0" laneChangedFrom="0" laneChangedTo="0"/>
        </edge>
        <edge id="174701109#0">
            <lane id="174701109#0_0" sampledSeconds="0.00" departed="0" arrived="0" entered="0" left="0" laneChangedFrom="0" laneChangedTo="0"/>
        </edge>
        <edge id="174701109#1">
            <lane id="174701109#1_0" sampledSeconds="0.00" departed="0" arrived="0" entered="0" left="0" laneChangedFrom="0" laneChangedTo="0"/>
        </edge>
        <edge id="174701109#2">
            <lane id="174701109#2_0" sampledSeconds="0.00" departed="0" arrived="0" entered="0" left="0" laneChangedFrom="0" laneChangedTo="0"/>
        </edge>
        <edge id="174701109#3">
            <lane id="174701109#3_0" sampledSeconds="0.00" departed="0" arrived="0" entered="0" left="0" laneChangedFrom="0" laneChangedTo="0"/>
        </edge>
        <edge id="174701110">
            <lane id="174701110_0" sampledSeconds="0.00" departed="0" arrived="0" entered="0" left="0" laneChangedFrom="0" laneChangedTo="0"/>
        </edge>
        <edge id="174701111">
            <lane id="174701111_0" sampledSeconds="0.00" departed="0" arrived="0" entered="0" left="0" laneChangedFrom="0" laneChangedTo="0"/>
        </edge>
        <edge id="224414722">
            <lane id="224414722_0" sampledSeconds="0.00" departed="0" arrived="0" entered="0" left="0" laneChangedFrom="0" laneChangedTo="0"/>
        </edge>
        <edge id="224414723#0">
            <lane id="224414723#0_0" sampledSeconds="0.00" departed="0" arrived="0" entered="0" left="0" laneChangedFrom="0" laneChangedTo="0"/>
        </edge>
        <edge id="224414723#1">
            <lane id="224414723#1_0" sampledSeconds="0.00" departed="0" arrived="0" entered="0" left="0" laneChangedFrom="0" laneChangedTo="0"/>
        </edge>
        <edge id="224414724">
            <lane id="224414724_0" sampledSeconds="0.00" departed="0" arrived="0" entered="0" left="0" laneChangedFrom="0" laneChangedTo="0"/>
        </edge>
        <edge id="273059095">
            <lane id="273059095_0" sampledSeconds="0.00" departed="0" arrived="0" entered="0" left="0" laneChangedFrom="0" laneChangedTo="0"/>
        </edge>
        <edge id="277218265">
            <lane id="277218265_0" sampledSeconds="0.00" departed="0" arrived="0" entered="0" left="0" laneChangedFrom="0" laneChangedTo="0"/>
        </edge>
        <edge id="277218266">
            <lane id="277218266_0" sampledSeconds="0.00" departed="0" arrived="0" entered="0" left="0" laneChangedFrom="0" laneChangedTo="0"/>
        </edge>
        <edge id="34156124#0">
            <lane id="34156124#0_0" sampledSeconds="7.10" traveltime="7.10" overlapTraveltime="7.56" density="1.49" laneDensity="1.49" occupancy="0.72" waitingTime="0.00" timeLoss="0.34" speed="11.17" speedRelative="0.80" departed="2" arrived="0" entered="0" left="1" laneChangedFrom="0" laneChangedTo="0"/>
        </edge>
        <edge id="34156124#1">
            <lane id="34156124#1_0" sampledSeconds="4.51" traveltime="5.43" overlapTraveltime="5.91" density="1.31" laneDensity="1.31" occupancy="0.62" waitingTime="0.00" timeLoss="0.44" speed="10.58" speedRelative="0.76" departed="0" arrived="0" entered="1" left="0" laneChangedFrom="0" laneChangedTo="0"/>
        </edge>
        <edge id="59139181">
            <lane id="59139181_0" sampledSeconds="0.00" departed="0" arrived="0" entered="0" left="0" laneChangedFrom="0" laneChangedTo="0"/>
        </edge>
        <edge id="61646749#0">
            <lane id="61646749#0_0" sampledSeconds="17.78" traveltime="17.41" overlapTraveltime="18.81" density="3.34" laneDensity="3.34" occupancy="1.61" waitingTime="4.00" timeLoss="14.96" speed="4.99" speedRelative="0.18" departed="1" arrived="0" entered="0" left="1" laneChangedFrom="0" laneChangedTo="0"/>
            <lane id="61646749#0_1" sampledSeconds="9.16" traveltime="9.43" overlapTraveltime="9.69" density="1.72" laneDensity="1.72" occupancy="0.85" waitingTime="0.00" timeLoss="5.54" speed="9.69" speedRelative="0.35" departed="1" arrived="0" entered="0" left="1" laneChangedFrom="0" laneChangedTo="0"/>
            <lane id="61646749#0_2" sampledSeconds="0.00" departed="0" arrived="0" entered="0" left="0" laneChangedFrom="0" laneChangedTo="0"/>
        </edge>
        <edge id="61646750">
            <lane id="61646750_0" sampledSeconds="1.19" traveltime="0.63" overlapTraveltime="0.92" density="1.79" laneDensity="1.79" occupancy="0.68" waitingTime="0.00" timeLoss="0.03" speed="17.50" speedRelative="1.05" departed="0" arrived="1" entered="2" left="0" laneChangedFrom="0" laneChangedTo="0"/>
            <lane id="61646750_1" sampledSeconds="0.00" departed="0" arrived="0" entered="0" left="0" laneChangedFrom="0" laneChangedTo="0"/>
            <lane id="61646750_2" sampledSeconds="0.00" departed="0" arrived="0" entered="0" left="0" laneChangedFrom="0" laneChangedTo="0"/>
        </edge>
        <edge id="78863963#0">
            <lane id="78863963#0_0" sampledSeconds="0.00" departed="0" arrived="0" entered="0" left="0" laneChangedFrom="0" laneChangedTo="0"/>
        </edge>
    </interval>
    <interval begin="120.00" end="180.00" id="wizard_example_lanes">
        <edge id="-104372161">
            <lane id="-104372161_0" sampledSeconds="5.32" traveltime="3.86" overlapTraveltime="6.58" density="4.11" laneDensity="4.11" occupancy="1.61" waitingTime="0.00" timeLoss="2.20" speed="4.04" speedRelative="0.18" departed="1" arrived="0" entered="0" left="1" laneChangedFrom="0" laneChangedTo="0"/>
        </edge>
        <edge id="-1211583059">
            <lane id="-1211583059_0" sampledSeconds="0.00" departed="0" arrived="0" entered="0" left="0" laneChangedFrom="0" laneChangedTo="0"/>
        </edge>
        <edge id="-1211583061#0">
            <lane id="-1211583061#0_0" sampledSeconds="0.00" departed="0" arrived="0" entered="0" left="0" laneChangedFrom="0" laneChangedTo="0"/>
        </edge>
        <edge id="-1211583061#1">
            <lane id="-1211583061#1_0" sampledSeconds="0.00" departed="0" arrived="0" entered="0" left="0" laneChangedFrom="0" laneChangedTo="0"/>
        </edge>
        <edge id="-224414722">
            <lane id="-224414722_0" sampledSeconds="0.00" departed="0" arrived="0" entered="0" left="0" laneChangedFrom="0" laneChangedTo="0"/>
        </edge>
        <edge id="-224414723#0">
            <lane id="-224414723#0_0" sampledSeconds="0.00" departed="0" arrived="0" entered="0" left="0" laneChangedFrom="0" laneChangedTo="0"/>
        </edge>
        <edge id="-224414723#1">
            <lane id="-224414723#1_0" sampledSeconds="0.00" departed="0" arrived="0" entered="0" left="0" laneChangedFrom="0" laneChangedTo="0"/>
        </edge>
        <edge id="-224414724">
            <lane id="-224414724_0" sampledSeconds="0.00" departed="0" arrived="0" entered="0" left="0" laneChangedFrom="0" laneChangedTo="0"/>
        </edge>
        <edge id="-273059095">
            <lane id="-273059095_0" sampledSeconds="0.00" departed="0" arrived="0" entered="0" left="0" laneChangedFrom="0" laneChangedTo="0"/>
        </edge>
        <edge id="-277218265">
            <lane id="-277218265_0" sampledSeconds="0.00" departed="0" arrived="0" entered="0" left="0" laneChangedFrom="0" laneChangedTo="0"/>
        </edge>
        <edge id="-277218266">
            <lane id="-277218266_0" sampledSeconds="0.00" departed="0" arrived="0" entered="0" left="0" laneChangedFrom="0" laneChangedTo="0"/>
        </edge>
        <edge id="-34156124#0">
            <lane id="-34156124#0_0" sampledSeconds="0.00" departed="0" arrived="0" entered="0" left="0" laneChangedFrom="0" laneChangedTo="0"/>
        </edge>
        <edge id="-34156124#1">
            <lane id="-34156124#1_0" sampledSeconds="0.00" departed="0" arrived="0" entered="0" left="0" laneChangedFrom="0" laneChangedTo="0"/>
        </edge>
        <edge id="-59139181">
            <lane id="-59139181_0" sampledSeconds="0.00" departed="0" arrived="0" entered="0" left="0" laneChangedFrom="0" laneChangedTo="0"/>
        </edge>
        <edge id="-78863963#2">
            <lane id="-78863963#2_0" sampledSeconds="15.43" traveltime="15.20" overlapTraveltime="15.64" density="1.49" laneDensity="1.49" occupancy="0.73" waitingTime="0.00" timeLoss="0.54" speed="11.32" speedRelative="0.82" departed="0" arrived="1" entered="1" left="0" laneChangedFrom="0" laneChangedTo="0"/>
        </edge>
        <edge id="104372160#1">
            <lane id="104372160#1_0" sampledSeconds="7.48" traveltime="22.45" overlapTraveltime="22.81" density="0.40" laneDensity="0.40" occupancy="0.19" waitingTime="0.00" timeLoss="4.27" speed="13.87" speedRelative="0.50" departed="0" arrived="0" entered="1" left="0" laneChangedFrom="0" laneChangedTo="0"/>
            <lane id="104372160#1_1" sampledSeconds="0.57" traveltime="13.08" overlapTraveltime="13.29" density="0.03" laneDensity="0.03" occupancy="0.01" waitingTime="0.00" timeLoss="0.02" speed="23.80" speedRelative="0.86" departed="0" arrived="1" entered="0" left="0" laneChangedFrom="0" laneChangedTo="0"/>