<?xml version="1.0" encoding="UTF-8"?>

<!-- generated on 2025-11-12 09:45:21 by Eclipse SUMO GUI Version 1.24.0
<sumoConfiguration xmlns:xsi="http://www.w3.org/2001/XMLSchema-instance" xsi:noNamespaceSchemaLocation="http://sumo.dlr.de/xsd/sumoConfiguration.xsd">

    <input>
        <net-file value="./osm.net.xml.gz"/>
        <route-files value="./osm.passenger.trips.xml"/>
        <additional-files value="./osm.poly.xml.gz,./output.add.xml"/>
    </input>

    <output>
        <summary-output value="./summary.xml"/>
        <tripinfo-output value="./tripinfos.xml"/>
        <statistic-output value="./stats.xml"/>
    </output>

    <time>
        <step-length value="1"/>
    </time>

    <processing>
        <ignore-route-errors value="true"/>
        <tls.actuated.jam-threshold value="30"/>
    </processing>

    <routing>
        <device.rerouting.adaptation-steps value="18"/>
        <device.rerouting.adaptation-interval value="10"/>
    </routing>

    <report>
        <verbose value="true"/>
        <duration-log.statistics value="true"/>
        <no-step-log value="true"/>
    </report>

    <traci_server>
        <remote-port value="51365"/>
    </traci_server>

    <random_number>
        <seed value="42"/>
    </random_number>

    <gui_only>
        <gui-settings-file value="./osm.view.xml"/>
    </gui_only>

</sumoConfiguration>
-->

<tripinfos xmlns:xsi="http://www.w3.org/2001/XMLSchema-instance" xsi:noNamespaceSchemaLocation="http://sumo.dlr.de/xsd/tripinfo_file.xsd">
    <tripinfo id="veh0" depart="0.00" departLane="78863963#0_0" departPos="5.10" departSpeed="13.17" departDelay="0.00" arrival="35.00" arrivalLane="-34156124#0_0" arrivalPos="79.41" arrivalSpeed="12.16" duration="35.00" routeLength="342.50" waitingTime="2.00" waitingCount="1" stopTime="0.00" timeLoss="8.86" rerouteNo="1" devices="tripinfo_veh0 routing_veh0" vType="veh_passenger" speedFactor="0.95" vaporized=""/>
    <tripinfo id="veh1" depart="12.00" departLane="78863963#0_0" departPos="5.10" departSpeed="14.89" departDelay="0.12" arrival="41.00" arrivalLane="104372160#1_0" arrivalPos="311.27" arrivalSpeed="29.23" duration="29.00" routeLength="492.31" waitingTime="0.00" waitingCount="0" stopTime="0.00" timeLoss="5.51" rerouteNo="0" devices="tripinfo_veh1 routing_veh1" vType="veh_passenger" speedFactor="1.07" vaporized=""/>
    <tripinfo id="veh2" depart="24.00" departLane="-104372161_0" departPos="5.10" departSpeed="9.99" departDelay="0.25" arrival="89.00" arrivalLane="-34156124#1_0" arrivalPos="57.47" arrivalSpeed="15.78" duration="65.00" routeLength="427.07" waitingTime="29.00" waitingCount="1" stopTime="0.00" timeLoss="46.10" rerouteNo="1" devices="tripinfo_veh2 routing_veh2" vType="veh_passenger" speedFactor="1.16" vaporized=""/>
    <tripinfo id="veh6" depart="72.00" departLane="104372160#1_0" departPos="5.10" departSpeed="0.00" departDelay="0.74" arrival="92.00" arrivalLane="61646750_0" arrivalPos="11.04" arrivalSpeed="16.93" duration="20.00" routeLength="317.50" waitingTime="0.00" waitingCount="0" stopTime="0.00" timeLoss="8.50" rerouteNo="0" devices="tripinfo_veh6 routing_veh6" vType="veh_passenger" speedFactor="1.03" vaporized=""/>
    <tripinfo id="veh3" depart="36.00" departLane="-104372161_0" departPos="5.10" departSpeed="9.99" departDelay="0.37" arrival="101.00" arrivalLane="-78863963#2_0" arrivalPos="172.09" arrivalSpeed="11.80" duration="65.00" routeLength="558.92" waitingTime="16.00" waitingCount="1" stopTime="0.00" timeLoss="30.44" rerouteNo="1" devices="tripinfo_veh3 routing_veh3" vType="veh_passenger" speedFactor="0.88" vaporized=""/>
    <tripinfo id="veh4" depart="48.00" departLane="-104372161_0" departPos="5.10" departSpeed="9.99" departDelay="0.49" arrival="103.00" arrivalLane="-78863963#2_0" arrivalPos="172.09" arrivalSpeed="12.40" duration="55.00" routeLength="558.92" waitingTime="5.00" waitingCount="1" stopTime="0.00" timeLoss="22.23" rerouteNo="1" devices="tripinfo_veh4 routing_veh4" vType="veh_passenger" speedFactor="0.93" vaporized=""/>
    <tripinfo id="veh5" depart="60.00" departLane="174701097#0_1" departPos="5.10" departSpeed="0.00" departDelay="0.61" arrival="105.00" arrivalLane="-78863963#2_0" arrivalPos="172.09" arrivalSpeed="13.98" duration="45.00" routeLength="499.48" waitingTime="1.00" waitingCount="1" stopTime="0.00" timeLoss="20.34" rerouteNo="1" devices="tripinfo_veh5 routing_veh5" vType="veh_passenger" speedFactor="1.08" vaporized=""/>
    <tripinfo id="veh7" depart="84.00" departLane="61646749#0_0" departPos="5.10" departSpeed="0.00" departDelay="0.86" arrival="120.00" arrivalLane="61646750_0" arrivalPos="11.04" arrivalSpeed="18.40" duration="36.00" routeLength="428.91" waitingTime="4.00" waitingCount="1" stopTime="0.00" timeLoss="21.05" rerouteNo="1" devices="tripinfo_veh7 routing_veh7" vType="veh_passenger" speedFactor="1.13" vaporized=""/>
    <tripinfo id="veh8" depart="96.00" departLane="61646749#0_1" departPos="5.10" departSpeed="0.00" departDelay="0.98" arrival="120.00" arrivalLane="104372160#1_1" arrivalPos="311.27" arrivalSpeed="23.80" duration="24.00" routeLength="417.58" waitingTime="0.00" waitingCount="0" stopTime="0.00" timeLoss="6.35" rerouteNo="0" devices="tripinfo_veh8 routing_veh8" vType="veh_passenger" speedFactor="0.88" vaporized=""/>
    <tripinfo id="veh9" depart="107.00" departLane="34156124#0_0" departPos="5.10" departSpeed="11.74" departDelay="0.11" arrival="138.00" arrivalLane="-78863963#2_0" arrivalPos="172.09" arrivalSpeed="11.73" duration="31.00" routeLength="342.50" waitingTime="0.00" waitingCount="0" stopTime="0.00" timeLoss="1.59" rerouteNo="1" devices="tripinfo_veh9 routing_veh9" vType="veh_passenger" speedFactor="0.84" vaporized=""/>
    <tripinfo id="veh13" depart="155.00" departLane="78863963#0_0" departPos="5.10" departSpeed="16.16" departDelay="0.60" arrival="188.00" arrivalLane="61646750_0" arrivalPos="11.04" arrivalSpeed="18.46" duration="33.00" routeLength="503.64" waitingTime="0.00" waitingCount="0" stopTime="0.00" timeLoss="11.01" rerouteNo="1" devices="tripinfo_veh13 routing_veh13" vType="veh_passenger" speedFactor="1.16" vaporized=""/>
    <tripinfo id="veh10" depart="119.00" departLane="34156124#0_0" departPos="5.10" departSpeed="13.91" departDelay="0.23" arrival="190.00" arrivalLane="61646750_2" arrivalPos="11.04" arrivalSpeed="16.30" duration="71.00" routeLength="488.88" waitingTime="35.00" waitingCount="1" stopTime="0.00" timeLoss="46.01" rerouteNo="1" devices="tripinfo_veh10 routing_veh10" vType="veh_passenger" speedFactor="1.00" vaporized=""/>
    <tripinfo id="veh12" depart="143.00" departLane="-104372161_0" departPos="5.10" departSpeed="9.99" departDelay="0.47" arrival="197.00" arrivalLane="-34156124#0_0" arrivalPos="79.41" arrivalSpeed="10.03" duration="54.00" routeLength="515.86" waitingTime="4.00" waitingCount="1" stopTime="0.00" timeLoss="19.55" rerouteNo="1" devices="tripinfo_veh12 routing_veh12" vType="veh_passenger" speedFactor="0.82" vaporized=""/>
    <tripinfo id="veh11" depart="131.00" departLane="174701097#0_1" departPos="5.10" departSpeed="0.00" departDelay="0.35" arrival="198.00" arrivalLane="-78863963#2_0" arrivalPos="172.09" arrivalSpeed="13.50" duration="67.00" routeLength="499.48" waitingTime="26.00" waitingCount="1" stopTime="0.00" timeLoss="40.54" rerouteNo="1" devices="tripinfo_veh11 routing_veh11" vType="veh_passenger" speedFactor="0.99" vaporized=""/>
    <tripinfo id="veh14" depart="167.00" departLane="78863963#0_0" departPos="5.10" departSpeed="13.00" departDelay="0.72" arrival="201.00" arrivalLane="61646750_0" arrivalPos="11.04" arrivalSpeed="14.95" duration="34.00" routeLength="503.64" waitingTime="0.00" waitingCount="0" stopTime="0.00" timeLoss="5.23" rerouteNo="1" devices="tripinfo_veh14 routing_veh14" vType="veh_passenger" speedFactor="0.94" vaporized=""/>
    <tripinfo id="veh16" depart="191.00" departLane="61646749#0_1" departPos="5.10" departSpeed="0.00" departDelay="0.96" arrival="214.00" arrivalLane="61646750_1" arrivalPos="11.04" arrivalSpeed="18.60" duration="23.00" routeLength="428.91" waitingTime="0.00" waitingCount="0" stopTime="0.00" timeLoss="8.08" rerouteNo="1" devices="tripinfo_veh16 routing_veh16" vType="veh_passenger" speedFactor="1.13" vaporized=""/>
    <tripinfo id="veh15" depart="179.00" departLane="61646749#0_0" departPos="5.10" departSpeed="0.00" departDelay="0.84" arrival="219.00" arrivalLane="61646750_0" arrivalPos="11.04" arrivalSpeed="15.26" duration="40.00" routeLength="428.91" waitingTime="8.00" waitingCount="1" stopTime="0.00" timeLoss="23.46" rerouteNo="1" devices="tripinfo_veh15 routing_veh15" vType="veh_passenger" speedFactor="0.99" vaporized=""/>
    <tripinfo id="veh17" depart="203.00" departLane="104372160#1_2" departPos="5.10" departSpeed="0.00" departDelay="1.09" arrival="223.00" arrivalLane="61646750_2" arrivalPos="11.04" arrivalSpeed="13.61" duration="20.00" routeLength="317.50" waitingTime="0.00" waitingCount="0" stopTime="0.00" timeLoss="6.02" rerouteNo="0" devices="tripinfo_veh17 routing_veh17" vType="veh_passenger" speedFactor="0.88" vaporized=""/>
    <tripinfo id="veh19" depart="226.00" departLane="78863963#0_0" departPos="5.10" departSpeed="17.22" departDelay="0.33" arrival="254.00" arrivalLane="61646750_0" arrivalPos="11.04" arrivalSpeed="19.82" duration="28.00" routeLength="503.64" waitingTime="0.00" waitingCount="0" stopTime="0.00" timeLoss="6.84" rerouteNo="1" devices="tripinfo_veh19 routing_veh19" vType="veh_passenger" speedFactor="1.24" vaporized=""/>
    <tripinfo id="veh22" depart="262.00" departLane="104372160#1_0" departPos="5.10" departSpeed="0.00" departDelay="0.70" arrival="282.00" arrivalLane="61646750_0" arrivalPos="11.04" arrivalSpeed="17.40" duration="20.00" routeLength="317.50" waitingTime="0.00" waitingCount="0" stopTime="0.00" timeLoss="7.74" rerouteNo="0" devices="tripinfo_veh22 routing_veh22" vType="veh_passenger" speedFactor="1.05" vaporized=""/>
    <tripinfo id="veh20" depart="238.00" departLane="78863963#0_0" departPos="5.10" departSpeed="15.22" departDelay="0.46" arrival="286.00" arrivalLane="61646750_0" arrivalPos="11.04" arrivalSpeed="17.01" duration="48.00" routeLength="503.64" waitingTime="13.00" waitingCount="1" stopTime="0.00" timeLoss="24.05" rerouteNo="1" devices="tripinfo_veh20 routing_veh20" vType="veh_passenger" speedFactor="1.10" vaporized=""/>
    <tripinfo id="veh18" depart="214.00" departLane="-34156124#1_0" departPos="5.10" departSpeed="0.00" departDelay="0.21" arrival="287.00" arrivalLane="61646750_2" arrivalPos="11.04" arrivalSpeed="16.45" duration="73.00" routeLength="639.81" waitingTime="20.00" waitingCount="1" stopTime="0.00" timeLoss="36.37" rerouteNo="1" devices="tripinfo_veh18 routing_veh18" vType="veh_passenger" speedFactor="1.00" vaporized=""/>
    <tripinfo id="veh21" depart="250.00" departLane="174701097#0_0" departPos="5.10" departSpeed="0.00" departDelay="0.58" arrival="294.00" arrivalLane="-34156124#0_0" arrivalPos="79.41" arrivalSpeed="10.85" duration="44.00" routeLength="459.09" waitingTime="5.00" waitingCount="1" stopTime="0.00" timeLoss="17.63" rerouteNo="1" devices="tripinfo_veh21 routing_veh21" vType="veh_passenger" speedFactor="0.87" vaporized=""/>
    <tripinfo id="veh23" depart="274.00" departLane="78863963#0_0" departPos="5.10" departSpeed="15.57" departDelay="0.82" arrival="304.00" arrivalLane="61646750_0" arrivalPos="11.04" arrivalSpeed="17.95" duration="30.00" routeLength="503.64" waitingTime="0.00" waitingCount="0" stopTime="0.00" timeLoss="5.93" rerouteNo="1" devices="tripinfo_veh23 routing_veh23" vType="veh_passenger" speedFactor="1.12" vaporized=""/>
    <tripinfo id="veh25" depart="297.00" departLane="104372160#1_1" departPos="5.10" departSpeed="0.00" departDelay="0.07" arrival="316.00" arrivalLane="61646750_1" arrivalPos="11.04" arrivalSpeed="16.70" duration="19.00" routeLength="317.50" waitingTime="0.00" waitingCount="0" stopTime="0.00" timeLoss="7.14" rerouteNo="0" devices="tripinfo_veh25 routing_veh25" vType="veh_passenger" speedFactor="1.08" vaporized=""/>
    <tripinfo id="veh28" depart="333.00" departLane="104372160#1_0" departPos="5.10" departSpeed="0.00" departDelay="0.44" arrival="352.00" arrivalLane="61646750_0" arrivalPos="11.04" arrivalSpeed="15.94" duration="19.00" routeLength="317.50" waitingTime="0.00" waitingCount="0" stopTime="0.00" timeLoss="6.55" rerouteNo="0" devices="tripinfo_veh28 routing_veh28" vType="veh_passenger" speedFactor="1.00" vaporized=""/>
    <tripinfo id="veh29" depart="345.00" departLane="61646749#0_0" departPos="5.10" departSpeed="0.00" departDelay="0.56" arrival="368.00" arrivalLane="61646750_0" arrivalPos="11.04" arrivalSpeed="17.61" duration="23.00" routeLength="428.91" waitingTime="0.00" waitingCount="0" stopTime="0.00" timeLoss="7.35" rerouteNo="1" devices="tripinfo_veh29 routing_veh29" vType="veh_passenger" speedFactor="1.08" vaporized=""/>
    <tripinfo id="veh24" depart="286.00" departLane="34156124#0_0" departPos="5.10" departSpeed="13.47" departDelay="0.95" arrival="419.00" arrivalLane="-78863963#2_0" arrivalPos="172.09" arrivalSpeed="12.19" duration="133.00" routeLength="342.50" waitingTime="100.00" waitingCount="1" stopTime="0.00" timeLoss="107.05" rerouteNo="1" devices="tripinfo_veh24 routing_veh24" vType="veh_passenger" speedFactor="0.97" vaporized=""/>
    <tripinfo id="veh26" depart="309.00" departLane="78863963#0_0" departPos="5.10" departSpeed="13.05" departDelay="0.19" arrival="421.00" arrivalLane="61646750_0" arrivalPos="11.04" arrivalSpeed="15.54" duration="112.00" routeLength="503.64" waitingTime="74.00" waitingCount="1" stopTime="0.00" timeLoss="85.01" rerouteNo="1" devices="tripinfo_veh26 routing_veh26" vType="veh_passenger" speedFactor="0.94" vaporized=""/>
    <tripinfo id="veh34" depart="404.00" departLane="104372160#1_1" departPos="5.10" departSpeed="0.00" departDelay="0.18" arrival="423.00" arrivalLane="61646750_1" arrivalPos="11.04" arrivalSpeed="18.70" duration="19.00" routeLength="317.50" waitingTime="0.00" waitingCount="0" stopTime="0.00" timeLoss="7.77" rerouteNo="0" devices="tripinfo_veh34 routing_veh34" vType="veh_passenger" speedFactor="1.15" vaporized=""/>
    <tripinfo id="veh30" depart="357.00" departLane="34156124#0_0" departPos="5.10" departSpeed="13.09" departDelay="0.68" arrival="424.00" arrivalLane="61646750_2" arrivalPos="11.04" arrivalSpeed="14.76" duration="67.00" routeLength="488.88" waitingTime="32.00" waitingCount="1" stopTime="0.00" timeLoss="40.35" rerouteNo="1" devices="tripinfo_veh30 routing_veh30" vType="veh_passenger" speedFactor="0.94" vaporized=""/>
    <tripinfo id="veh27" depart="321.00" departLane="-104372161_0" departPos="5.10" departSpeed="9.99" departDelay="0.32" arrival="430.00" arrivalLane="-78863963#2_0" arrivalPos="172.09" arrivalSpeed="11.78" duration="109.00" routeLength="558.92" waitingTime="57.00" waitingCount="1" stopTime="0.00" timeLoss="75.01" rerouteNo="1" devices="tripinfo_veh27 routing_veh27" vType="veh_passenger" speedFactor="0.91" vaporized=""/>
    <tripinfo id="veh35" depart="416.00" departLane="61646749#0_0" departPos="5.10" departSpeed="0.00" departDelay="0.30" arrival="439.00" arrivalLane="61646750_0" arrivalPos="11.04" arrivalSpeed="18.72" duration="23.00" routeLength="428.91" waitingTime="0.00" waitingCount="0" stopTime="0.00" timeLoss="8.25" rerouteNo="1" devices="tripinfo_veh35 routing_veh35" vType="veh_passenger" speedFactor="1.15" vaporized=""/>
    <tripinfo id="veh36" depart="428.00" departLane="61646749#0_0" departPos="5.10" departSpeed="0.00" departDelay="0.42" arrival="452.00" arrivalLane="61646750_0" arrivalPos="11.04" arrivalSpeed="16.64" duration="24.00" routeLength="428.91" waitingTime="0.00" waitingCount="0" stopTime="0.00" timeLoss="8.31" rerouteNo="1" devices="tripinfo_veh36 routing_veh36" vType="veh_passenger" speedFactor="1.06" vaporized=""/>
    <tripinfo id="veh39" depart="464.00" departLane="104372160#1_0" departPos="5.10" departSpeed="0.00" departDelay="0.79" arrival="484.00" arrivalLane="61646750_0" arrivalPos="11.04" arrivalSpeed="14.99" duration="20.00" routeLength="317.50" waitingTime="0.00" waitingCount="0" stopTime="0.00" timeLoss="6.27" rerouteNo="0" devices="tripinfo_veh39 routing_veh39" vType="veh_passenger" speedFactor="0.92" vaporized=""/>
    <tripinfo id="veh42" depart="499.00" departLane="-104372161_0" departPos="5.10" departSpeed="9.99" departDelay="0.16" arrival="534.00" arrivalLane="174701097#2_0" arrivalPos="144.25" arrivalSpeed="6.19" duration="35.00" routeLength="356.15" waitingTime="2.00" waitingCount="1" stopTime="0.00" timeLoss="19.32" rerouteNo="1" devices="tripinfo_veh42 routing_veh42" vType="veh_passenger" speedFactor="0.94" vaporized=""/>
    <tripinfo id="veh31" depart="369.00" departLane="34156124#0_0" departPos="5.10" departSpeed="14.95" departDelay="0.81" arrival="541.00" arrivalLane="61646750_2" arrivalPos="11.04" arrivalSpeed="17.52" duration="172.00" routeLength="488.88" waitingTime="132.00" waitingCount="2" stopTime="0.00" timeLoss="148.51" rerouteNo="1" devices="tripinfo_veh31 routing_veh31" vType="veh_passenger" speedFactor="1.08" vaporized=""/>
    <tripinfo id="veh32" depart="381.00" departLane="34156124#0_0" departPos="5.10" departSpeed="11.44" departDelay="0.93" arrival="544.00" arrivalLane="-78863963#2_0" arrivalPos="172.09" arrivalSpeed="10.25" duration="163.00" routeLength="342.50" waitingTime="119.00" waitingCount="2" stopTime="0.00" timeLoss="132.79" rerouteNo="1" devices="tripinfo_veh32 routing_veh32" vType="veh_passenger" speedFactor="0.82" vaporized=""/>
    <tripinfo id="veh37" depart="440.00" departLane="174701097#0_0" departPos="5.10" departSpeed="0.00" departDelay="0.54" arrival="545.00" arrivalLane="-34156124#0_0" arrivalPos="79.41" arrivalSpeed="13.94" duration="105.00" routeLength="459.09" waitingTime="69.00" waitingCount="1" stopTime="0.00" timeLoss="82.71" rerouteNo="1" devices="tripinfo_veh37 routing_veh37" vType="veh_passenger" speedFactor="1.07" vaporized=""/>
    <tripinfo id="veh40" depart="476.00" departLane="174701097#0_1" departPos="5.10" departSpeed="0.00" departDelay="0.91" arrival="551.00" arrivalLane="-78863963#2_0" arrivalPos="172.09" arrivalSpeed="11.20" duration="75.00" routeLength="499.48" waitingTime="32.00" waitingCount="1" stopTime="0.00" timeLoss="44.75" rerouteNo="1" devices="tripinfo_veh40 routing_veh40" vType="veh_passenger" speedFactor="0.86" vaporized=""/>
    <tripinfo id="veh41" depart="487.00" departLane="-104372161_0" departPos="5.10" departSpeed="9.99" departDelay="0.04" arrival="553.00" arrivalLane="-78863963#2_0" arrivalPos="172.09" arrivalSpeed="13.15" duration="66.00" routeLength="558.92" waitingTime="16.00" waitingCount="1" stopTime="0.00" timeLoss="32.70" rerouteNo="1" devices="tripinfo_veh41 routing_veh41" vType="veh_passenger" speedFactor="0.95" vaporized=""/>
    <tripinfo id="veh44" depart="523.00" departLane="61646749#0_0" departPos="5.10" departSpeed="0.00" departDelay="0.40" arrival="560.00" arrivalLane="61646750_0" arrivalPos="11.04" arrivalSpeed="18.18" duration="37.00" routeLength="428.91" waitingTime="5.00" waitingCount="1" stopTime="0.00" timeLoss="22.19" rerouteNo="1" devices="tripinfo_veh44 routing_veh44" vType="veh_passenger" speedFactor="1.12" vaporized=""/>
    <tripinfo id="veh52" depart="618.00" departLane="104372160#1_0" departPos="5.10" departSpeed="0.00" departDelay="0.39" arrival="637.00" arrivalLane="104372160#1_0" arrivalPos="311.27" arrivalSpeed="24.30" duration="19.00" routeLength="306.17" waitingTime="0.00" waitingCount="0" stopTime="0.00" timeLoss="6.39" rerouteNo="1" devices="tripinfo_veh52 routing_veh52" vType="veh_passenger" speedFactor="0.91" vaporized=""/>
    <tripinfo id="veh53" depart="630.00" departLane="174701097#0_0" departPos="5.10" departSpeed="0.00" departDelay="0.51" arrival="650.00" arrivalLane="174701097#2_0" arrivalPos="144.25" arrivalSpeed="17.99" duration="20.00" routeLength="299.38" waitingTime="0.00" waitingCount="0" stopTime="0.00" timeLoss="9.37" rerouteNo="1" devices="tripinfo_veh53 routing_veh53" vType="veh_passenger" speedFactor="1.05" vaporized=""/>
    <tripinfo id="veh54" depart="642.00" departLane="61646749#0_0" departPos="5.10" departSpeed="0.00" departDelay="0.63" arrival="666.00" arrivalLane="61646750_0" arrivalPos="11.04" arrivalSpeed="17.15" duration="24.00" routeLength="428.91" waitingTime="0.00" waitingCount="0" stopTime="0.00" timeLoss="8.72" rerouteNo="1" devices="tripinfo_veh54 routing_veh54" vType="veh_passenger" speedFactor="1.10" vaporized=""/>
    <tripinfo id="veh58" depart="689.00" departLane="-104372161_0" departPos="5.10" departSpeed="9.99" departDelay="0.12" arrival="716.00" arrivalLane="174701097#2_1" arrivalPos="144.25" arrivalSpeed="10.87" duration="27.00" routeLength="356.15" waitingTime="0.00" waitingCount="0" stopTime="0.00" timeLoss="14.67" rerouteNo="1" devices="tripinfo_veh58 routing_veh58" vType="veh_passenger" speedFactor="1.21" vaporized=""/>
    <tripinfo id="veh33" depart="392.00" departLane="34156124#0_0" departPos="5.10" departSpeed="14.03" departDelay="0.05" arrival="718.00" arrivalLane="-78863963#2_0" arrivalPos="172.09" arrivalSpeed="12.78" duration="326.00" routeLength="342.50" waitingTime="281.00" waitingCount="2" stopTime="0.00" timeLoss="301.50" rerouteNo="1" devices="tripinfo_veh33 routing_veh33" vType="veh_passenger" speedFactor="1.01" vaporized=""/>
    <tripinfo id="veh38" depart="452.00" departLane="34156124#0_0" departPos="5.10" departSpeed="14.67" departDelay="0.67" arrival="721.00" arrivalLane="104372160#1_2" arrivalPos="311.27" arrivalSpeed="28.45" duration="269.00" routeLength="477.55" waitingTime="231.00" waitingCount="2" stopTime="0.00" timeLoss="245.80" rerouteNo="1" devices="tripinfo_veh38 routing_veh38" vType="veh_passenger" speedFactor="1.06" vaporized=""/>
    <tripinfo id="veh49" depart="582.00" departLane="78863963#0_0" departPos="5.10" departSpeed="14.49" departDelay="0.02" arrival="721.00" arrivalLane="61646750_0" arrivalPos="11.04" arrivalSpeed="16.37" duration="139.00" routeLength="503.64" waitingTime="104.00" waitingCount="1" stopTime="0.00" timeLoss="113.58" rerouteNo="1" devices="tripinfo_veh49 routing_veh49" vType="veh_passenger" speedFactor="1.04" vaporized=""/>
    <tripinfo id="veh55" depart="654.00" departLane="174701097#0_0" departPos="5.10" departSpeed="0.00" departDelay="0.75" arrival="725.00" arrivalLane="-34156124#0_0" arrivalPos="79.41" arrivalSpeed="14.46" duration="71.00" routeLength="459.09" waitingTime="35.00" waitingCount="1" stopTime="0.00" timeLoss="48.70" rerouteNo="1" devices="tripinfo_veh55 routing_veh55" vType="veh_passenger" speedFactor="1.07" vaporized=""/>
    <tripinfo id="veh51" depart="606.00" departLane="-104372161_0" departPos="5.10" departSpeed="9.99" departDelay="0.26" arrival="728.00" arrivalLane="-78863963#2_0" arrivalPos="172.09" arrivalSpeed="14.53" duration="122.00" routeLength="558.92" waitingTime="77.00" waitingCount="1" stopTime="0.00" timeLoss="94.12" rerouteNo="1" devices="tripinfo_veh51 routing_veh51" vType="veh_passenger" speedFactor="1.14" vaporized=""/>
    <tripinfo id="veh59" depart="701.00" departLane="78863963#0_0" departPos="5.10" departSpeed="13.50" departDelay="0.25" arrival="732.00" arrivalLane="104372160#1_0" arrivalPos="311.27" arrivalSpeed="26.40" duration="31.00" routeLength="492.31" waitingTime="0.00" waitingCount="0" stopTime="0.00" timeLoss="5.18" rerouteNo="0" devices="tripinfo_veh59 routing_veh59" vType="veh_passenger" speedFactor="0.97" vaporized=""/>
    <tripinfo id="veh56" depart="666.00" departLane="61646749#0_0" departPos="5.10" departSpeed="0.00" departDelay="0.88" arrival="740.00" arrivalLane="61646750_0" arrivalPos="11.04" arrivalSpeed="18.08" duration="74.00" routeLength="428.91" waitingTime="42.00" waitingCount="1" stopTime="0.00" timeLoss="59.84" rerouteNo="1" devices="tripinfo_veh56 routing_veh56" vType="veh_passenger" speedFactor="1.14" vaporized=""/>
    <tripinfo id="veh63" depart="749.00" departLane="61646749#0_0" departPos="5.10" departSpeed="0.00" departDelay="0.74" arrival="772.00" arrivalLane="61646750_0" arrivalPos="11.04" arrivalSpeed="18.10" duration="23.00" routeLength="428.91" waitingTime="0.00" waitingCount="0" stopTime="0.00" timeLoss="8.39" rerouteNo="1" devices="tripinfo_veh63 routing_veh63" vType="veh_passenger" speedFactor="1.16" vaporized=""/>
    <tripinfo id="veh67" depart="796.00" departLane="104372160#1_0" departPos="5.10" departSpeed="0.00" departDelay="0.23" arrival="815.00" arrivalLane="61646750_0" arrivalPos="11.04" arrivalSpeed="17.06" duration="19.00" routeLength="317.50" waitingTime="0.00" waitingCount="0" stopTime="0.00" timeLoss="6.88" rerouteNo="0" devices="tripinfo_veh67 routing_veh67" vType="veh_passenger" speedFactor="1.05" vaporized=""/>
    <tripinfo id="veh68" depart="808.00" departLane="104372160#1_1" departPos="5.10" departSpeed="0.00" departDelay="0.35" arrival="827.00" arrivalLane="61646750_1" arrivalPos="11.04" arrivalSpeed="17.97" duration="19.00" routeLength="317.50" waitingTime="0.00" waitingCount="0" stopTime="0.00" timeLoss="7.31" rerouteNo="0" devices="tripinfo_veh68 routing_veh68" vType="veh_passenger" speedFactor="1.09" vaporized=""/>
    <tripinfo id="veh45" depart="535.00" departLane="34156124#0_0" departPos="5.10" departSpeed="13.76" departDelay="0.53" arrival="841.00" arrivalLane="-78863963#2_0" arrivalPos="172.09" arrivalSpeed="12.53" duration="306.00" routeLength="342.50" waitingTime="268.00" waitingCount="2" stopTime="0.00" timeLoss="280.78" rerouteNo="1" devices="tripinfo_veh45 routing_veh45" vType="veh_passenger" speedFactor="0.99" vaporized=""/>
    <tripinfo id="veh43" depart="511.00" departLane="34156124#0_0" departPos="5.10" departSpeed="11.49" departDelay="0.28" arrival="842.00" arrivalLane="104372160#1_2" arrivalPos="311.27" arrivalSpeed="22.67" duration="331.00" routeLength="477.55" waitingTime="284.00" waitingCount="2" stopTime="0.00" timeLoss="302.00" rerouteNo="1" devices="tripinfo_veh43 routing_veh43" vType="veh_passenger" speedFactor="0.83" vaporized=""/>
    <tripinfo id="veh64" depart="761.00" departLane="-104372161_0" departPos="5.10" departSpeed="9.99" departDelay="0.86" arrival="845.00" arrivalLane="-34156124#0_0" arrivalPos="79.41" arrivalSpeed="14.05" duration="84.00" routeLength="515.86" waitingTime="42.00" waitingCount="1" stopTime="0.00" timeLoss="58.87" rerouteNo="1" devices="tripinfo_veh64 routing_veh64" vType="veh_passenger" speedFactor="1.08" vaporized=""/>
    <tripinfo id="veh65" depart="773.00" departLane="61646749#0_0" departPos="5.10" departSpeed="0.00" departDelay="0.98" arrival="860.00" arrivalLane="61646750_0" arrivalPos="11.04" arrivalSpeed="17.91" duration="87.00" routeLength="428.91" waitingTime="55.00" waitingCount="1" stopTime="0.00" timeLoss="71.83" rerouteNo="1" devices="tripinfo_veh65 routing_veh65" vType="veh_passenger" speedFactor="1.10" vaporized=""/>
    <tripinfo id="veh81" depart="963.00" departLane="104372160#1_0" departPos="5.10" departSpeed="0.00" departDelay="0.95" arrival="982.00" arrivalLane="61646750_0" arrivalPos="11.04" arrivalSpeed="17.71" duration="19.00" routeLength="317.50" waitingTime="0.00" waitingCount="0" stopTime="0.00" timeLoss="7.85" rerouteNo="0" devices="tripinfo_veh81 routing_veh81" vType="veh_passenger" speedFactor="1.06" vaporized=""/>
    <tripinfo id="veh82" depart="974.00" departLane="104372160#1_1" departPos="5.10" departSpeed="0.00" departDelay="0.07" arrival="994.00" arrivalLane="61646750_1" arrivalPos="11.04" arrivalSpeed="14.72" duration="20.00" routeLength="317.50" waitingTime="0.00" waitingCount="0" stopTime="0.00" timeLoss="6.67" rerouteNo="0" devices="tripinfo_veh82 routing_veh82" vType="veh_passenger" speedFactor="0.93" vaporized=""/>
    <tripinfo id="veh83" depart="986.00" departLane="174701097#0_0" departPos="5.10" departSpeed="0.00" departDelay="0.19" arrival="1014.00" arrivalLane="174701097#2_0" arrivalPos="144.25" arrivalSpeed="5.40" duration="28.00" routeLength="299.38" waitingTime="4.00" waitingCount="1" stopTime="0.00" timeLoss="15.84" rerouteNo="1" devices="tripinfo_veh83 routing_veh83" vType="veh_passenger" speedFactor="0.89" vaporized=""/>
    <tripinfo id="veh73" depart="868.00" departLane="78863963#0_0" departPos="5.10" departSpeed="13.64" departDelay="0.97" arrival="1019.00" arrivalLane="104372160#1_0" arrivalPos="311.27" arrivalSpeed="26.82" duration="151.00" routeLength="492.31" waitingTime="117.00" waitingCount="1" stopTime="0.00" timeLoss="125.53" rerouteNo="0" devices="tripinfo_veh73 routing_veh73" vType="veh_passenger" speedFactor="0.98" vaporized=""/>
    <tripinfo id="veh47" depart="559.00" departLane="34156124#0_0" departPos="5.10" departSpeed="14.35" departDelay="0.77" arrival="1020.00" arrivalLane="61646750_2" arrivalPos="11.04" arrivalSpeed="16.00" duration="461.00" routeLength="488.88" waitingTime="417.00" waitingCount="3" stopTime="0.00" timeLoss="437.44" rerouteNo="1" devices="tripinfo_veh47 routing_veh47" vType="veh_passenger" speedFactor="1.03" vaporized=""/>
    <tripinfo id="veh78" depart="927.00" departLane="78863963#0_0" departPos="5.10" departSpeed="14.01" departDelay="0.58" arrival="1022.00" arrivalLane="61646750_0" arrivalPos="11.04" arrivalSpeed="16.62" duration="95.00" routeLength="503.64" waitingTime="60.00" waitingCount="1" stopTime="0.00" timeLoss="68.91" rerouteNo="1" devices="tripinfo_veh78 routing_veh78" vType="veh_passenger" speedFactor="1.01" vaporized=""/>
    <tripinfo id="veh46" depart="547.00" departLane="-34156124#1_0" departPos="5.10" departSpeed="0.00" departDelay="0.65" arrival="1025.00" arrivalLane="61646750_2" arrivalPos="11.04" arrivalSpeed="13.31" duration="478.00" routeLength="639.81" waitingTime="406.00" waitingCount="3" stopTime="0.00" timeLoss="434.51" rerouteNo="1" devices="tripinfo_veh46 routing_veh46" vType="veh_passenger" speedFactor="0.85" vaporized=""/>